HEADER
"PSFversion" "1.00"
"design" "(\"ELEC402\" \"BUFFER\" \"schematic\" \"\")"
"simulator" "spectre"
"temperature" "27"
"host" ""
"date" "Oct 21 23:13:49 2019"
"title" ""
"analysisList" "()"
END
