HEADER
"PSFversion" "1.00"
"Time Stamp" "Oct 21 23:13:49 2019"
TYPE
"variable" STRUCT(
"value" FLOAT DOUBLE
) PROP( "key" "element" )
VALUE
"vin" "variable" ( 1 ) PROP( )
"vdd" "variable" ( 1 ) PROP( )
"CL" "variable" ( 1e-12 ) PROP( )
"temp" "variable" ( 27 ) PROP( )
END
